 Gaussian 09, Revision A.02,
 Gaussian 09:  EM64L-G09RevA.02 11-Jun-2009

 ----------
 # opt ram1
 ----------

 ---
 Mol
 ---
 Symbolic Z-matrix:
 Charge =  0 Multiplicity = 1

 SCF Done:  E(RAM1) =  0.254833636080     A.U. after   17 cycles
 SCF Done:  E(RAM1) =  0.219376440519     A.U. after   15 cycles
 SCF Done:  E(RAM1) =  0.214355496379     A.U. after   20 cycles
 SCF Done:  E(RAM1) =  0.212495842687     A.U. after   15 cycles
 SCF Done:  E(RAM1) =  0.210960774394     A.U. after   15 cycles
 SCF Done:  E(RAM1) =  0.209266763897     A.U. after   15 cycles
 SCF Done:  E(RAM1) =  0.208690508417     A.U. after   14 cycles
 SCF Done:  E(RAM1) =  0.208268008991     A.U. after   22 cycles
 SCF Done:  E(RAM1) =  0.207977107834     A.U. after   15 cycles
 SCF Done:  E(RAM1) =  0.207781180201     A.U. after   14 cycles
 SCF Done:  E(RAM1) =  0.207494353381     A.U. after   11 cycles
 SCF Done:  E(RAM1) =  0.207493851928     A.U. after   11 cycles
 SCF Done:  E(RAM1) =  0.207493490837     A.U. after   11 cycles
 SCF Done:  E(RAM1) =  0.207493076190     A.U. after   11 cycles
 SCF Done:  E(RAM1) =  0.207492445187     A.U. after   11 cycles
 SCF Done:  E(RAM1) =  0.207491835936     A.U. after   11 cycles
 SCF Done:  E(RAM1) =  0.207491490443     A.U. after   11 cycles
 SCF Done:  E(RAM1) =  0.207491215016     A.U. after   11 cycles
 SCF Done:  E(RAM1) =  0.207491050398     A.U. after   11 cycles
 SCF Done:  E(RAM1) =  0.207490985861     A.U. after   10 cycles
 Optimization completed.
    -- Stationary point found.

                         Standard orientation:
 ---------------------------------------------------------------------
 Center     Atomic      Atomic             Coordinates (Angstroms)
 Number     Number       Type             X           Y           Z
 ---------------------------------------------------------------------
      1          7           0       -3.078508   -2.559037   -0.287695
      2          7           0       -5.480430   -2.884762   -0.023576
      3          7           0       -0.951972    3.595757    0.017504
      4          7           0        1.134582    2.562548    0.519035
      5          7           0        4.948181   -1.572010   -0.204382
      6          7           0       -0.777586    1.141857    0.141947
      7          6           0       -0.753251   -1.738338   -0.631158
      8          6           0       -2.187112   -1.495568   -0.342048
      9          6           0       -4.326475   -2.107204   -0.032105
     10          6           0       -2.758416   -0.239888   -0.109104
     11          6           0       -2.115217    1.058226   -0.063646
     12          6           0       -2.920317    2.214552   -0.226970
     13          6           0       -2.270121    3.456532   -0.177808
     14          6           0       -0.232320    2.414275    0.192930
     15          6           0        2.059034    1.507863    0.315987
     16          6           0        1.963524    0.299866    1.032959
     17          6           0        2.922899   -0.692147    0.884608
     18          6           0        4.025439   -0.528964    0.012592
     19          6           0        4.995799   -2.620616    0.783114
     20          6           0        6.207507   -1.218078   -0.808856
     21          6           0        4.122882    0.695758   -0.690524
     22          6           0        3.158400    1.682241   -0.549899
     23         16           0       -4.427926   -0.380695    0.148981
     24          1           0       -0.423902   -1.076973   -1.471308
     25          1           0       -0.559368   -2.802037   -0.915370
     26          1           0       -0.138827   -1.491342    0.272535
     27          1           0       -6.093541   -2.670176    0.734137
     28          1           0       -5.325966   -3.866772   -0.131997
     29          1           0        1.506255    3.468050    0.305316
     30          1           0       -4.000126    2.140057   -0.397150
     31          1           0       -2.832695    4.399654   -0.310315
     32          1           0        1.122372    0.127134    1.723762
     33          1           0        2.799319   -1.617732    1.467203
     34          1           0        5.832681   -3.329092    0.546824
     35          1           0        4.031544   -3.195665    0.748038
     36          1           0        5.142453   -2.227325    1.826035
     37          1           0        6.883835   -2.112604   -0.832786
     38          1           0        6.731832   -0.386722   -0.263078
     39          1           0        6.022635   -0.892291   -1.867803
     40          1           0        4.963739    0.887562   -1.373878
     41          1           0        3.271188    2.615858   -1.124113
 ---------------------------------------------------------------------

 The electronic state is 1-A.
 Alpha  occ. eigenvalues --   -1.49319  -1.46962  -1.44408  -1.39224  -1.32698
 Alpha  occ. eigenvalues --   -1.29401  -1.25447  -1.16989  -1.15938  -1.12892
 Alpha  occ. eigenvalues --   -1.08159  -1.05370  -1.04605  -0.93617  -0.89313
 Alpha  occ. eigenvalues --   -0.88019  -0.87160  -0.83962  -0.79083  -0.75825
 Alpha  occ. eigenvalues --   -0.70863  -0.67994  -0.67699  -0.65750  -0.63118
 Alpha  occ. eigenvalues --   -0.61960  -0.61115  -0.59806  -0.59411  -0.58650
 Alpha  occ. eigenvalues --   -0.57658  -0.55909  -0.55557  -0.54418  -0.53633
 Alpha  occ. eigenvalues --   -0.52898  -0.52208  -0.51334  -0.49811  -0.49306
 Alpha  occ. eigenvalues --   -0.49217  -0.48730  -0.47776  -0.47602  -0.46670
 Alpha  occ. eigenvalues --   -0.45818  -0.45081  -0.44117  -0.43586  -0.42251
 Alpha  occ. eigenvalues --   -0.41183  -0.40315  -0.38533  -0.37599  -0.37007
 Alpha  occ. eigenvalues --   -0.35644  -0.34136  -0.31826  -0.29613
 Alpha virt. eigenvalues --   -0.02653   0.00227   0.00563   0.01834   0.01980
 Alpha virt. eigenvalues --    0.02299   0.03092   0.05832   0.07293   0.08872
 Alpha virt. eigenvalues --    0.09250   0.10179   0.11001   0.12168   0.12888

 Mulliken atomic charges:
              1
     1  N   -0.182878
     2  N   -0.291227
     3  N   -0.226934
     4  N   -0.215629
     5  N   -0.253462
     6  N   -0.208985
     7  C   -0.155859
     8  C    0.029331
     9  C   -0.142129
    10  C   -0.404722
    11  C    0.146081
    12  C   -0.297347
    13  C    0.002839
    14  C    0.150819
    15  C   -0.003626
    16  C   -0.071219
    17  C   -0.183337
    18  C    0.072020
    19  C   -0.093004
    20  C   -0.092781
    21  C   -0.175726
    22  C   -0.127284
    23  S    0.457105
    24  H    0.103906
    25  H    0.095317
    26  H    0.109665
    27  H    0.193969
    28  H    0.205020
    29  H    0.228423
    30  H    0.153979
    31  H    0.162566
    32  H    0.152425
    33  H    0.135476
    34  H    0.084922
    35  H    0.086688
    36  H    0.060491
    37  H    0.085193
    38  H    0.059808
    39  H    0.085717
    40  H    0.134348
    41  H    0.130042
 Sum of Mulliken atomic charges =   0.00000

 Dipole moment (field-independent basis, Debye):
    X=              0.1164    Y=             -1.1780    Z=              1.0484  Tot=              1.5813
 N-N= 9.796296039462D+02 E-N=-1.643597320105D+03  KE=-2.315629935091D+02
 1\1\GINC-B41\FOpt\RAM1\ZDO\C16H18N6S1\RUPAKHETIC\28-Mar-2018\0\\# opt
 ram1\\Mol\\0,1\N,1.294683539,-8.8532397663,26.0616541079\N,3.231609684
 1,-8.051789152,24.8162307376\N,-2.1354202513,-4.3385164199,29.27855500
 77\N,-3.8619006715,-5.9766907766,29.1868225776\N,-5.6391937089,-11.358
 4009434,29.3864709659\N,-1.738478091,-6.5027631484,28.171308443\C,-0.6
 606447404,-9.2153140873,27.5596282733\C,0.3218678325,-8.3228610788,26.
 8988129874\C,2.0886161279,-7.8671827689,25.5880903591\C,0.3688107513,-
 6.9321385119,27.043964067\C,-0.5063928323,-6.067076856,27.8098367851\C
 ,-0.0419165491,-4.7709079442,28.1506558728\C,-0.9109619969,-3.95639036

 Normal termination of Gaussian 09 at Wed Mar 28 15:25:30 2018.
