 Gaussian 09, Revision A.02,
 Gaussian 09:  EM64L-G09RevA.02 11-Jun-2009

 -------------------------------------------------------
 #HF/6-31G* nosymm SCF=Tight opt=(Z-MATRIX,MaxCycle=200)
 -------------------------------------------------------

 ---------------
 Mol-Water Dimer
 ---------------
 Symbolic Z-matrix:
 Charge =  0 Multiplicity = 1

 SCF Done:  E(RHF) =  -1416.59803150     A.U. after   16 cycles
 SCF Done:  E(RHF) =  -1416.59845118     A.U. after   13 cycles
 SCF Done:  E(RHF) =  -1416.59868514     A.U. after   11 cycles
 SCF Done:  E(RHF) =  -1416.59876820     A.U. after   10 cycles
 SCF Done:  E(RHF) =  -1416.59877861     A.U. after    8 cycles
 SCF Done:  E(RHF) =  -1416.59878419     A.U. after    8 cycles
 SCF Done:  E(RHF) =  -1416.59878710     A.U. after    8 cycles
 SCF Done:  E(RHF) =  -1416.59878754     A.U. after    7 cycles
 Optimization completed.
    -- Stationary point found.

                         Z-Matrix orientation:
 ---------------------------------------------------------------------
 Center     Atomic      Atomic             Coordinates (Angstroms)
 Number     Number       Type             X           Y           Z
 ---------------------------------------------------------------------
      1          7           0       -3.013310   -2.511550   -0.412190
      2          7           0       -5.227560   -3.080250    0.017760
      3          7           0       -0.978170    3.560350    0.131290
      4          7           0        1.039990    2.528080    0.168310
      5          7           0        4.965790   -1.515470   -0.008700
      6          7           0       -0.840430    1.198040    0.040700
      7          6           0       -0.761600   -1.677320   -0.873750
      8          6           0       -2.178550   -1.415950   -0.453810
      9          6           0       -4.200080   -2.188550   -0.056910
     10          6           0       -2.743260   -0.232570   -0.111110
     11          6           0       -2.161610    1.109840   -0.029690
     12          6           0       -2.958510    2.253840   -0.018700
     13          6           0       -2.287360    3.456620    0.067680
     14          6           0       -0.310180    2.407830    0.107020
     15          6           0        2.000320    1.487940    0.118570
     16          6           0        2.049180    0.490890    1.080540
     17          6           0        3.019090   -0.490530    1.043400
     18          6           0        4.001460   -0.509640    0.043610
     19          6           0        5.184710   -2.316130    1.176500
     20          6           0        6.115110   -1.316330   -0.863710
     21          6           0        3.957010    0.514580   -0.906280
     22          6           0        2.965340    1.479990   -0.871530
     23         16           0       -4.444770   -0.503040    0.268660
     24          1           0       -0.323700   -0.829860   -1.375390
     25          1           0       -0.747910   -2.545160   -1.520640
     26          1           0       -0.147640   -1.891140   -0.005210
     27          1           0       -5.970080   -2.880980    0.650160
     28          1           0       -4.934880   -4.033670    0.008750
     29          1           0        1.363510    3.468790    0.168140
     30          1           0       -4.026990    2.218930   -0.092660
     31          1           0       -2.835230    4.383640    0.081060
     32          1           0        1.316850    0.479140    1.865620
     33          1           0        3.006790   -1.237970    1.810910
     34          1           0        5.969390   -3.032150    0.977450
     35          1           0        4.296340   -2.880140    1.431660
     36          1           0        5.474950   -1.722960    2.043980
     37          1           0        6.759560   -2.181230   -0.794870
     38          1           0        6.697560   -0.433580   -0.597900
     39          1           0        5.812970   -1.225390   -1.899520
     40          1           0        4.684260    0.568150   -1.691040
     41          1           0        2.950100    2.242740   -1.630400
     42         -1           0       -3.442340   -1.112680   -0.081880
     43         -1           0       -2.644870   -2.737710    1.024160
     44          1           0       -2.417437   -4.454419   -0.870952
     45         -1           0       -2.048997   -4.680579    0.565399
     46          8           0       -2.146462   -5.337944   -1.079575
     47          1           0       -2.139977   -5.384687   -2.025799
 ---------------------------------------------------------------------

 Alpha  occ. eigenvalues --  -91.98230 -20.52312 -15.60198 -15.57613 -15.56851
 Alpha  occ. eigenvalues --  -15.56400 -15.54870 -15.54784 -11.36363 -11.34394
 Alpha  occ. eigenvalues --  -11.30801 -11.28846 -11.28668 -11.27153 -11.25966
 Alpha  occ. eigenvalues --  -11.25554 -11.25153 -11.25090 -11.22858 -11.22631
 Alpha  occ. eigenvalues --  -11.22110 -11.21841 -11.21806 -11.21082  -8.99363
 Alpha  occ. eigenvalues --   -6.67632  -6.67516  -6.67334  -1.33569  -1.32480
 Alpha  occ. eigenvalues --   -1.31426  -1.25496  -1.23368  -1.22424  -1.19625
 Alpha  occ. eigenvalues --   -1.13042  -1.08830  -1.04309  -1.03415  -1.01525
 Alpha  occ. eigenvalues --   -0.99738  -0.96904  -0.93642  -0.90160  -0.88600
 Alpha  occ. eigenvalues --   -0.86075  -0.82882  -0.80755  -0.78585  -0.77664
 Alpha  occ. eigenvalues --   -0.73518  -0.73000  -0.70615  -0.69602  -0.68447
 Alpha  occ. eigenvalues --   -0.67131  -0.65737  -0.65050  -0.64000  -0.63770
 Alpha  occ. eigenvalues --   -0.62041  -0.61357  -0.60164  -0.59549  -0.58629
 Alpha  occ. eigenvalues --   -0.58480  -0.57476  -0.56758  -0.55864  -0.55587
 Alpha  occ. eigenvalues --   -0.55476  -0.54447  -0.53824  -0.52983  -0.52646
 Alpha  occ. eigenvalues --   -0.50721  -0.49306  -0.48717  -0.47768  -0.46943
 Alpha  occ. eigenvalues --   -0.46682  -0.44920  -0.43860  -0.42549  -0.40379
 Alpha  occ. eigenvalues --   -0.39332  -0.39092  -0.33386  -0.33012  -0.29940
 Alpha  occ. eigenvalues --   -0.26977
 Alpha virt. eigenvalues --    0.08914   0.14058   0.14864   0.15094   0.16674
 Alpha virt. eigenvalues --    0.18902   0.21518   0.23108   0.24099   0.24836
 Alpha virt. eigenvalues --    0.26055   0.26094   0.26636   0.27284   0.27708

 Mulliken atomic charges:
              1
     1  N   -0.648551
     2  N   -0.889434
     3  N   -0.625366
     4  N   -0.912816
     5  N   -0.668677
     6  N   -0.684346
     7  C   -0.491848
     8  C    0.368199
     9  C    0.407886
    10  C   -0.400421
    11  C    0.425094
    12  C   -0.369550
    13  C    0.123139
    14  C    0.862620
    15  C    0.285597
    16  C   -0.165299
    17  C   -0.283086
    18  C    0.388408
    19  C   -0.290684
    20  C   -0.289652
    21  C   -0.279987
    22  C   -0.197883
    23  S    0.279745
    24  H    0.212308
    25  H    0.177896
    26  H    0.200214
    27  H    0.391387
    28  H    0.406340
    29  H    0.399656
    30  H    0.221193
    31  H    0.213157
    32  H    0.217571
    33  H    0.206548
    34  H    0.175264
    35  H    0.179405
    36  H    0.157759
    37  H    0.175861
    38  H    0.156551
    39  H    0.177182
    40  H    0.204631
    41  H    0.205836
    42  H    0.495391
    43  O   -0.938604
    44  H    0.421368
 Sum of Mulliken atomic charges =   0.00000

 Dipole moment (field-independent basis, Debye):
    X=             -0.3468    Y=              0.5661    Z=              0.2255  Tot=              0.7011
 Quadrupole moment (field-independent basis, Debye-Ang):
   XX=           -107.9038   YY=           -161.2968   ZZ=           -143.8274
   XY=             -0.7621   XZ=             -6.6988   YZ=             -3.5978

 1\1\GINC-B41\FOpt\RHF\6-31G(d)\C16H20N6O1S1\RUPAKHETIC\28-Mar-2018\1\\
 #HF/6-31G* nosymm SCF=Tight opt=(Z-MATRIX,MaxCycle=200)\\Mol-Water Dim
 er\\0,1\N,0,-3.01331,-2.51155,-0.41219\N,0,-5.22756,-3.08025,0.01776\N
 ,0,-0.97817,3.56035,0.13129\N,0,1.03999,2.52808,0.16831\N,0,4.96579,-1
 .51547,-0.0087\N,0,-0.84043,1.19804,0.0407\C,0,-0.7616,-1.67732,-0.873
 75\C,0,-2.17855,-1.41595,-0.45381\C,0,-4.20008,-2.18855,-0.05691\C,0,-
 2.74326,-0.23257,-0.11111\C,0,-2.16161,1.10984,-0.02969\C,0,-2.95851,2
 .25384,-0.0187\C,0,-2.28736,3.45662,0.06768\C,0,-0.31018,2.40783,0.107

 Normal termination of Gaussian 09 at Wed Mar 28 15:52:29 2018.
