 Gaussian 09, Revision A.02,
 Gaussian 09:  EM64L-G09RevA.02 11-Jun-2009

 -------------------------------------------------------
 #HF/6-31G* nosymm SCF=Tight opt=(Z-MATRIX,MaxCycle=200)
 -------------------------------------------------------

 ---------------
 Mol-Water Dimer
 ---------------
 Symbolic Z-matrix:
 Charge =  0 Multiplicity = 1

 SCF Done:  E(RHF) =  -1416.59761230     A.U. after   16 cycles
 SCF Done:  E(RHF) =  -1416.59825346     A.U. after   13 cycles
 SCF Done:  E(RHF) =  -1416.59867433     A.U. after   11 cycles
 SCF Done:  E(RHF) =  -1416.59892511     A.U. after   13 cycles
 SCF Done:  E(RHF) =  -1416.59892751     A.U. after    8 cycles
 SCF Done:  E(RHF) =  -1416.59892867     A.U. after    7 cycles
 SCF Done:  E(RHF) =  -1416.59892948     A.U. after    8 cycles
 SCF Done:  E(RHF) =  -1416.59892954     A.U. after    6 cycles
 Optimization completed.
    -- Stationary point found.

                         Z-Matrix orientation:
 ---------------------------------------------------------------------
 Center     Atomic      Atomic             Coordinates (Angstroms)
 Number     Number       Type             X           Y           Z
 ---------------------------------------------------------------------
      1          7           0       -3.013310   -2.511550   -0.412190
      2          7           0       -5.227560   -3.080250    0.017760
      3          7           0       -0.978170    3.560350    0.131290
      4          7           0        1.039990    2.528080    0.168310
      5          7           0        4.965790   -1.515470   -0.008700
      6          7           0       -0.840430    1.198040    0.040700
      7          6           0       -0.761600   -1.677320   -0.873750
      8          6           0       -2.178550   -1.415950   -0.453810
      9          6           0       -4.200080   -2.188550   -0.056910
     10          6           0       -2.743260   -0.232570   -0.111110
     11          6           0       -2.161610    1.109840   -0.029690
     12          6           0       -2.958510    2.253840   -0.018700
     13          6           0       -2.287360    3.456620    0.067680
     14          6           0       -0.310180    2.407830    0.107020
     15          6           0        2.000320    1.487940    0.118570
     16          6           0        2.049180    0.490890    1.080540
     17          6           0        3.019090   -0.490530    1.043400
     18          6           0        4.001460   -0.509640    0.043610
     19          6           0        5.184710   -2.316130    1.176500
     20          6           0        6.115110   -1.316330   -0.863710
     21          6           0        3.957010    0.514580   -0.906280
     22          6           0        2.965340    1.479990   -0.871530
     23         16           0       -4.444770   -0.503040    0.268660
     24          1           0       -0.323700   -0.829860   -1.375390
     25          1           0       -0.747910   -2.545160   -1.520640
     26          1           0       -0.147640   -1.891140   -0.005210
     27          1           0       -5.970080   -2.880980    0.650160
     28          1           0       -4.934880   -4.033670    0.008750
     29          1           0        1.363510    3.468790    0.168140
     30          1           0       -4.026990    2.218930   -0.092660
     31          1           0       -2.835230    4.383640    0.081060
     32          1           0        1.316850    0.479140    1.865620
     33          1           0        3.006790   -1.237970    1.810910
     34          1           0        5.969390   -3.032150    0.977450
     35          1           0        4.296340   -2.880140    1.431660
     36          1           0        5.474950   -1.722960    2.043980
     37          1           0        6.759560   -2.181230   -0.794870
     38          1           0        6.697560   -0.433580   -0.597900
     39          1           0        5.812970   -1.225390   -1.899520
     40          1           0        4.684260    0.568150   -1.691040
     41          1           0        2.950100    2.242740   -1.630400
     42         -1           0       -1.672710    2.234130    0.037720
     43         -1           0       -1.045320    3.489910    1.628130
     44          1           0       -0.026159    5.378210    0.259545
     45         -1           0       -0.093309    5.307770    1.756385
     46          8           0        0.412513    6.215851    0.318643
     47          1           0        0.365609    6.463041    1.232023
 ---------------------------------------------------------------------

 Alpha  occ. eigenvalues --  -91.97733 -20.52287 -15.59745 -15.58002 -15.56974
 Alpha  occ. eigenvalues --  -15.56013 -15.55219 -15.55124 -11.35588 -11.35094
 Alpha  occ. eigenvalues --  -11.31171 -11.29394 -11.28487 -11.27265 -11.25685
 Alpha  occ. eigenvalues --  -11.25586 -11.25264 -11.25228 -11.22914 -11.22785
 Alpha  occ. eigenvalues --  -11.22452 -11.21921 -11.21893 -11.20833  -8.98872
 Alpha  occ. eigenvalues --   -6.67142  -6.67029  -6.66846  -1.34215  -1.31653
 Alpha  occ. eigenvalues --   -1.31457  -1.25620  -1.23676  -1.22017  -1.20261
 Alpha  occ. eigenvalues --   -1.13199  -1.08626  -1.04380  -1.03011  -1.01617
 Alpha  occ. eigenvalues --   -0.99920  -0.97024  -0.93581  -0.90452  -0.88601
 Alpha  occ. eigenvalues --   -0.86444  -0.82955  -0.80506  -0.78710  -0.77393
 Alpha  occ. eigenvalues --   -0.73464  -0.73277  -0.70085  -0.69643  -0.68778
 Alpha  occ. eigenvalues --   -0.67263  -0.66043  -0.65225  -0.64143  -0.63897
 Alpha  occ. eigenvalues --   -0.62127  -0.61166  -0.60250  -0.59663  -0.58596
 Alpha  occ. eigenvalues --   -0.58496  -0.57672  -0.56623  -0.55985  -0.55666
 Alpha  occ. eigenvalues --   -0.55229  -0.54405  -0.53608  -0.53100  -0.52755
 Alpha  occ. eigenvalues --   -0.50828  -0.49174  -0.48668  -0.47770  -0.47435
 Alpha  occ. eigenvalues --   -0.46694  -0.45110  -0.43011  -0.42703  -0.40672
 Alpha  occ. eigenvalues --   -0.39868  -0.38462  -0.33537  -0.33161  -0.29827
 Alpha  occ. eigenvalues --   -0.27163
 Alpha virt. eigenvalues --    0.08720   0.13824   0.14822   0.15426   0.16657
 Alpha virt. eigenvalues --    0.18967   0.22194   0.23013   0.23883   0.24445
 Alpha virt. eigenvalues --    0.26098   0.26260   0.27174   0.27460   0.27631

 Mulliken atomic charges:
              1
     1  N   -0.587641
     2  N   -0.885377
     3  N   -0.699178
     4  N   -0.923785
     5  N   -0.669180
     6  N   -0.686391
     7  C   -0.493709
     8  C    0.339585
     9  C    0.387270
    10  C   -0.384126
    11  C    0.425377
    12  C   -0.374100
    13  C    0.144233
    14  C    0.903038
    15  C    0.284095
    16  C   -0.164385
    17  C   -0.283705
    18  C    0.389000
    19  C   -0.289906
    20  C   -0.290207
    21  C   -0.280285
    22  C   -0.195714
    23  S    0.267293
    24  H    0.209676
    25  H    0.184872
    26  H    0.192853
    27  H    0.387688
    28  H    0.397992
    29  H    0.407615
    30  H    0.226673
    31  H    0.219489
    32  H    0.215912
    33  H    0.204915
    34  H    0.175156
    35  H    0.176982
    36  H    0.158425
    37  H    0.175459
    38  H    0.157914
    39  H    0.177916
    40  H    0.206280
    41  H    0.212042
    42  H    0.497939
    43  O   -0.938641
    44  H    0.420643
 Sum of Mulliken atomic charges =   0.00000

 Dipole moment (field-independent basis, Debye):
    X=             -0.9262    Y=             -3.9856    Z=              2.7062  Tot=              4.9057
 Quadrupole moment (field-independent basis, Debye-Ang):
   XX=           -110.7399   YY=           -160.0320   ZZ=           -145.8178
   XY=             -3.7551   XZ=             -9.0885   YZ=              1.1822

 1\1\GINC-B41\FOpt\RHF\6-31G(d)\C16H20N6O1S1\RUPAKHETIC\28-Mar-2018\1\\
 #HF/6-31G* nosymm SCF=Tight opt=(Z-MATRIX,MaxCycle=200)\\Mol-Water Dim
 er\\0,1\N,0,-3.01331,-2.51155,-0.41219\N,0,-5.22756,-3.08025,0.01776\N
 ,0,-0.97817,3.56035,0.13129\N,0,1.03999,2.52808,0.16831\N,0,4.96579,-1
 .51547,-0.0087\N,0,-0.84043,1.19804,0.0407\C,0,-0.7616,-1.67732,-0.873
 75\C,0,-2.17855,-1.41595,-0.45381\C,0,-4.20008,-2.18855,-0.05691\C,0,-
 2.74326,-0.23257,-0.11111\C,0,-2.16161,1.10984,-0.02969\C,0,-2.95851,2
 .25384,-0.0187\C,0,-2.28736,3.45662,0.06768\C,0,-0.31018,2.40783,0.107

 Normal termination of Gaussian 09 at Wed Mar 28 15:52:37 2018.
