 Gaussian 09, Revision A.02,
 Gaussian 09:  EM64L-G09RevA.02 11-Jun-2009

 -------------------------------------------------------
 #HF/6-31G* nosymm SCF=Tight opt=(Z-MATRIX,MaxCycle=200)
 -------------------------------------------------------

 ---------------
 Mol-Water Dimer
 ---------------
 Symbolic Z-matrix:
 Charge =  0 Multiplicity = 1

 SCF Done:  E(RHF) =  -1416.59540844     A.U. after   16 cycles
 SCF Done:  E(RHF) =  -1416.59529919     A.U. after   13 cycles
 SCF Done:  E(RHF) =  -1416.59542511     A.U. after   12 cycles
 SCF Done:  E(RHF) =  -1416.59541032     A.U. after   10 cycles
 SCF Done:  E(RHF) =  -1416.59544223     A.U. after   11 cycles
 SCF Done:  E(RHF) =  -1416.59544503     A.U. after    9 cycles
 SCF Done:  E(RHF) =  -1416.59544556     A.U. after    8 cycles
 Optimization completed.
    -- Stationary point found.

                         Z-Matrix orientation:
 ---------------------------------------------------------------------
 Center     Atomic      Atomic             Coordinates (Angstroms)
 Number     Number       Type             X           Y           Z
 ---------------------------------------------------------------------
      1          7           0       -3.013310   -2.511550   -0.412190
      2          7           0       -5.227560   -3.080250    0.017760
      3          7           0       -0.978170    3.560350    0.131290
      4          7           0        1.039990    2.528080    0.168310
      5          7           0        4.965790   -1.515470   -0.008700
      6          7           0       -0.840430    1.198040    0.040700
      7          6           0       -0.761600   -1.677320   -0.873750
      8          6           0       -2.178550   -1.415950   -0.453810
      9          6           0       -4.200080   -2.188550   -0.056910
     10          6           0       -2.743260   -0.232570   -0.111110
     11          6           0       -2.161610    1.109840   -0.029690
     12          6           0       -2.958510    2.253840   -0.018700
     13          6           0       -2.287360    3.456620    0.067680
     14          6           0       -0.310180    2.407830    0.107020
     15          6           0        2.000320    1.487940    0.118570
     16          6           0        2.049180    0.490890    1.080540
     17          6           0        3.019090   -0.490530    1.043400
     18          6           0        4.001460   -0.509640    0.043610
     19          6           0        5.184710   -2.316130    1.176500
     20          6           0        6.115110   -1.316330   -0.863710
     21          6           0        3.957010    0.514580   -0.906280
     22          6           0        2.965340    1.479990   -0.871530
     23         16           0       -4.444770   -0.503040    0.268660
     24          1           0       -0.323700   -0.829860   -1.375390
     25          1           0       -0.747910   -2.545160   -1.520640
     26          1           0       -0.147640   -1.891140   -0.005210
     27          1           0       -5.970080   -2.880980    0.650160
     28          1           0       -4.934880   -4.033670    0.008750
     29          1           0        1.363510    3.468790    0.168140
     30          1           0       -4.026990    2.218930   -0.092660
     31          1           0       -2.835230    4.383640    0.081060
     32          1           0        1.316850    0.479140    1.865620
     33          1           0        3.006790   -1.237970    1.810910
     34          1           0        5.969390   -3.032150    0.977450
     35          1           0        4.296340   -2.880140    1.431660
     36          1           0        5.474950   -1.722960    2.043980
     37          1           0        6.759560   -2.181230   -0.794870
     38          1           0        6.697560   -0.433580   -0.597900
     39          1           0        5.812970   -1.225390   -1.899520
     40          1           0        4.684260    0.568150   -1.691040
     41          1           0        2.950100    2.242740   -1.630400
     42         -1           0        5.763930   -0.556490    0.823960
     43         -1           0        5.534150   -0.905710   -1.255760
     44          1           0        3.805532   -2.909541   -1.219141
     45         -1           0        4.373893   -2.299781   -2.466201
     46          8           0        3.301427   -3.515233   -1.745051
     47          1           0        2.466070   -3.092085   -1.888896
 ---------------------------------------------------------------------

 Alpha  occ. eigenvalues --  -91.97568 -20.52901 -15.59554 -15.58308 -15.57915
 Alpha  occ. eigenvalues --  -15.55057 -15.54860 -15.54779 -11.35378 -11.34481
 Alpha  occ. eigenvalues --  -11.30659 -11.28614 -11.28311 -11.28053 -11.26346
 Alpha  occ. eigenvalues --  -11.25896 -11.25894 -11.25446 -11.23547 -11.23333
 Alpha  occ. eigenvalues --  -11.22747 -11.22720 -11.21999 -11.21078  -8.98706
 Alpha  occ. eigenvalues --   -6.66976  -6.66863  -6.66680  -1.33627  -1.32000
 Alpha  occ. eigenvalues --   -1.31465  -1.26817  -1.23583  -1.21788  -1.19552
 Alpha  occ. eigenvalues --   -1.13785  -1.08413  -1.04161  -1.02975  -1.02343
 Alpha  occ. eigenvalues --   -1.00386  -0.97798  -0.93404  -0.90786  -0.88375
 Alpha  occ. eigenvalues --   -0.86353  -0.83560  -0.80455  -0.79099  -0.77163
 Alpha  occ. eigenvalues --   -0.73470  -0.73145  -0.70412  -0.69578  -0.69432
 Alpha  occ. eigenvalues --   -0.67392  -0.66076  -0.65648  -0.64496  -0.63746
 Alpha  occ. eigenvalues --   -0.62728  -0.60998  -0.60112  -0.59565  -0.59218
 Alpha  occ. eigenvalues --   -0.58416  -0.57999  -0.56636  -0.56498  -0.56000
 Alpha  occ. eigenvalues --   -0.55343  -0.54682  -0.53821  -0.53723  -0.53403
 Alpha  occ. eigenvalues --   -0.51367  -0.49465  -0.48809  -0.47710  -0.47220
 Alpha  occ. eigenvalues --   -0.46907  -0.45098  -0.42621  -0.42258  -0.41181
 Alpha  occ. eigenvalues --   -0.39395  -0.38302  -0.33992  -0.33316  -0.29625
 Alpha  occ. eigenvalues --   -0.27891
 Alpha virt. eigenvalues --    0.09169   0.13831   0.14155   0.15553   0.16341
 Alpha virt. eigenvalues --    0.19203   0.21221   0.22408   0.23756   0.24505
 Alpha virt. eigenvalues --    0.25524   0.26130   0.26487   0.26922   0.27318

 Mulliken atomic charges:
              1
     1  N   -0.587309
     2  N   -0.885743
     3  N   -0.627095
     4  N   -0.913939
     5  N   -0.705836
     6  N   -0.687450
     7  C   -0.498809
     8  C    0.337319
     9  C    0.386216
    10  C   -0.380516
    11  C    0.422794
    12  C   -0.367315
    13  C    0.122621
    14  C    0.862190
    15  C    0.290305
    16  C   -0.163697
    17  C   -0.282714
    18  C    0.361548
    19  C   -0.293020
    20  C   -0.293180
    21  C   -0.277677
    22  C   -0.198354
    23  S    0.267664
    24  H    0.206799
    25  H    0.183925
    26  H    0.190820
    27  H    0.387303
    28  H    0.398024
    29  H    0.400645
    30  H    0.222779
    31  H    0.213008
    32  H    0.222331
    33  H    0.210538
    34  H    0.184300
    35  H    0.183298
    36  H    0.164318
    37  H    0.184881
    38  H    0.163095
    39  H    0.183697
    40  H    0.210155
    41  H    0.210729
    42  H    0.484519
    43  O   -0.923221
    44  H    0.430055
 Sum of Mulliken atomic charges =   0.00000

 Dipole moment (field-independent basis, Debye):
    X=             -0.4932    Y=              0.6005    Z=              2.3437  Tot=              2.4691
 Quadrupole moment (field-independent basis, Debye-Ang):
   XX=           -111.6300   YY=           -155.1481   ZZ=           -150.8216
   XY=             11.7404   XZ=             -3.9266   YZ=            -15.0488

 1\1\GINC-B41\FOpt\RHF\6-31G(d)\C16H20N6O1S1\RUPAKHETIC\28-Mar-2018\1\\
 #HF/6-31G* nosymm SCF=Tight opt=(Z-MATRIX,MaxCycle=200)\\Mol-Water Dim
 er\\0,1\N,0,-3.01331,-2.51155,-0.41219\N,0,-5.22756,-3.08025,0.01776\N
 ,0,-0.97817,3.56035,0.13129\N,0,1.03999,2.52808,0.16831\N,0,4.96579,-1
 .51547,-0.0087\N,0,-0.84043,1.19804,0.0407\C,0,-0.7616,-1.67732,-0.873
 75\C,0,-2.17855,-1.41595,-0.45381\C,0,-4.20008,-2.18855,-0.05691\C,0,-
 2.74326,-0.23257,-0.11111\C,0,-2.16161,1.10984,-0.02969\C,0,-2.95851,2
 .25384,-0.0187\C,0,-2.28736,3.45662,0.06768\C,0,-0.31018,2.40783,0.107

 Normal termination of Gaussian 09 at Wed Mar 28 15:52:13 2018.
