 Gaussian 09, Revision A.02,
 Gaussian 09:  EM64L-G09RevA.02 11-Jun-2009

 ---------------------------
 #HF/6-31G* nosymm SCF=Tight
 ---------------------------

 ---
 Mol
 ---
 Symbolic Z-matrix:
 Charge =  0 Multiplicity = 1

                          Input orientation:
 ---------------------------------------------------------------------
 Center     Atomic      Atomic             Coordinates (Angstroms)
 Number     Number       Type             X           Y           Z
 ---------------------------------------------------------------------
      1          7           0       -3.013310   -2.511550   -0.412190
      2          7           0       -5.227560   -3.080250    0.017760
      3          7           0       -0.978170    3.560350    0.131290
      4          7           0        1.039990    2.528080    0.168310
      5          7           0        4.965790   -1.515470   -0.008700
      6          7           0       -0.840430    1.198040    0.040700
      7          6           0       -0.761600   -1.677320   -0.873750
      8          6           0       -2.178550   -1.415950   -0.453810
      9          6           0       -4.200080   -2.188550   -0.056910
     10          6           0       -2.743260   -0.232570   -0.111110
     11          6           0       -2.161610    1.109840   -0.029690
     12          6           0       -2.958510    2.253840   -0.018700
     13          6           0       -2.287360    3.456620    0.067680
     14          6           0       -0.310180    2.407830    0.107020
     15          6           0        2.000320    1.487940    0.118570
     16          6           0        2.049180    0.490890    1.080540
     17          6           0        3.019090   -0.490530    1.043400
     18          6           0        4.001460   -0.509640    0.043610
     19          6           0        5.184710   -2.316130    1.176500
     20          6           0        6.115110   -1.316330   -0.863710
     21          6           0        3.957010    0.514580   -0.906280
     22          6           0        2.965340    1.479990   -0.871530
     23         16           0       -4.444770   -0.503040    0.268660
     24          1           0       -0.323700   -0.829860   -1.375390
     25          1           0       -0.747910   -2.545160   -1.520640
     26          1           0       -0.147640   -1.891140   -0.005210
     27          1           0       -5.970080   -2.880980    0.650160
     28          1           0       -4.934880   -4.033670    0.008750
     29          1           0        1.363510    3.468790    0.168140
     30          1           0       -4.026990    2.218930   -0.092660
     31          1           0       -2.835230    4.383640    0.081060
     32          1           0        1.316850    0.479140    1.865620
     33          1           0        3.006790   -1.237970    1.810910
     34          1           0        5.969390   -3.032150    0.977450
     35          1           0        4.296340   -2.880140    1.431660
     36          1           0        5.474950   -1.722960    2.043980
     37          1           0        6.759560   -2.181230   -0.794870
     38          1           0        6.697560   -0.433580   -0.597900
     39          1           0        5.812970   -1.225390   -1.899520
     40          1           0        4.684260    0.568150   -1.691040
     41          1           0        2.950100    2.242740   -1.630400
 ---------------------------------------------------------------------

 SCF Done:  E(RHF) =  -1340.57791358     A.U. after   16 cycles

 Alpha  occ. eigenvalues --  -91.97222 -15.59307 -15.57276 -15.56787 -15.54718
 Alpha  occ. eigenvalues --  -15.54384 -15.54256 -11.35049 -11.33945 -11.30202
 Alpha  occ. eigenvalues --  -11.28182 -11.27841 -11.27016 -11.25362 -11.25109
 Alpha  occ. eigenvalues --  -11.25104 -11.25022 -11.22673 -11.22450 -11.21694
 Alpha  occ. eigenvalues --  -11.21672 -11.21557 -11.20367  -8.98360  -6.66631
 Alpha  occ. eigenvalues --   -6.66517  -6.66335  -1.33096  -1.31138  -1.25425
 Alpha  occ. eigenvalues --   -1.22945  -1.21460  -1.19078  -1.12839  -1.07956
 Alpha  occ. eigenvalues --   -1.03636  -1.02475  -1.01376  -0.99502  -0.96864
 Alpha  occ. eigenvalues --   -0.92885  -0.89935  -0.87871  -0.85705  -0.82656
 Alpha  occ. eigenvalues --   -0.79946  -0.78307  -0.76767  -0.72795  -0.72648
 Alpha  occ. eigenvalues --   -0.69635  -0.69092  -0.66718  -0.65404  -0.64824
 Alpha  occ. eigenvalues --   -0.63732  -0.63327  -0.61875  -0.60467  -0.59526
 Alpha  occ. eigenvalues --   -0.58974  -0.58335  -0.57881  -0.57220  -0.55956
 Alpha  occ. eigenvalues --   -0.55805  -0.55311  -0.54765  -0.53118  -0.52928
 Alpha  occ. eigenvalues --   -0.52484  -0.50488  -0.48702  -0.48224  -0.47193
 Alpha  occ. eigenvalues --   -0.46401  -0.44470  -0.42275  -0.41836  -0.40130
 Alpha  occ. eigenvalues --   -0.38849  -0.37927  -0.33101  -0.32643  -0.29135
 Alpha  occ. eigenvalues --   -0.26786
 Alpha virt. eigenvalues --    0.09611   0.14529   0.15073   0.15929   0.17135
 Alpha virt. eigenvalues --    0.19669   0.22636   0.23174   0.25004   0.26249
 Alpha virt. eigenvalues --    0.26576   0.26880   0.27549   0.27778   0.28195

 Mulliken atomic charges:
              1
     1  N   -0.588563
     2  N   -0.886264
     3  N   -0.627805
     4  N   -0.913541
     5  N   -0.669060
     6  N   -0.685013
     7  C   -0.492521
     8  C    0.335955
     9  C    0.385614
    10  C   -0.381088
    11  C    0.422645
    12  C   -0.368472
    13  C    0.122383
    14  C    0.861797
    15  C    0.287061
    16  C   -0.164226
    17  C   -0.283372
    18  C    0.387891
    19  C   -0.289613
    20  C   -0.289435
    21  C   -0.279986
    22  C   -0.197715
    23  S    0.264921
    24  H    0.208927
    25  H    0.182452
    26  H    0.191332
    27  H    0.386693
    28  H    0.396816
    29  H    0.398889
    30  H    0.221014
    31  H    0.211175
    32  H    0.217809
    33  H    0.204555
    34  H    0.174432
    35  H    0.177344
    36  H    0.157901
    37  H    0.174969
    38  H    0.156622
    39  H    0.177422
    40  H    0.204082
    41  H    0.205975
 Sum of Mulliken atomic charges =   0.00000

 Dipole moment (field-independent basis, Debye):
    X=              0.2539    Y=             -1.8552    Z=              1.2929  Tot=              2.2755
 Quadrupole moment (field-independent basis, Debye-Ang):
   XX=           -105.6509   YY=           -135.0608   ZZ=           -141.9502
   XY=              2.0883   XZ=             -9.3002   YZ=             -8.6550

 Normal termination of Gaussian 09 at Wed Mar 28 15:40:21 2018.
