 Gaussian 09, Revision A.02,
 Gaussian 09:  EM64L-G09RevA.02 11-Jun-2009

 -------------------------------------------------------
 #HF/6-31G* nosymm SCF=Tight opt=(Z-MATRIX,MaxCycle=200)
 -------------------------------------------------------

 ---------------
 Mol-Water Dimer
 ---------------
 Symbolic Z-matrix:
 Charge =  0 Multiplicity = 1

 SCF Done:  E(RHF) =  -1416.59584778     A.U. after   16 cycles
 SCF Done:  E(RHF) =  -1416.59579032     A.U. after   12 cycles
 SCF Done:  E(RHF) =  -1416.59586995     A.U. after   12 cycles
 SCF Done:  E(RHF) =  -1416.59587195     A.U. after   10 cycles
 SCF Done:  E(RHF) =  -1416.59589005     A.U. after   10 cycles
 SCF Done:  E(RHF) =  -1416.59589485     A.U. after    8 cycles
 SCF Done:  E(RHF) =  -1416.59589516     A.U. after    8 cycles
 SCF Done:  E(RHF) =  -1416.59589518     A.U. after    6 cycles
 Optimization completed.
    -- Stationary point found.

                         Z-Matrix orientation:
 ---------------------------------------------------------------------
 Center     Atomic      Atomic             Coordinates (Angstroms)
 Number     Number       Type             X           Y           Z
 ---------------------------------------------------------------------
      1          7           0       -3.013310   -2.511550   -0.412190
      2          7           0       -5.227560   -3.080250    0.017760
      3          7           0       -0.978170    3.560350    0.131290
      4          7           0        1.039990    2.528080    0.168310
      5          7           0        4.965790   -1.515470   -0.008700
      6          7           0       -0.840430    1.198040    0.040700
      7          6           0       -0.761600   -1.677320   -0.873750
      8          6           0       -2.178550   -1.415950   -0.453810
      9          6           0       -4.200080   -2.188550   -0.056910
     10          6           0       -2.743260   -0.232570   -0.111110
     11          6           0       -2.161610    1.109840   -0.029690
     12          6           0       -2.958510    2.253840   -0.018700
     13          6           0       -2.287360    3.456620    0.067680
     14          6           0       -0.310180    2.407830    0.107020
     15          6           0        2.000320    1.487940    0.118570
     16          6           0        2.049180    0.490890    1.080540
     17          6           0        3.019090   -0.490530    1.043400
     18          6           0        4.001460   -0.509640    0.043610
     19          6           0        5.184710   -2.316130    1.176500
     20          6           0        6.115110   -1.316330   -0.863710
     21          6           0        3.957010    0.514580   -0.906280
     22          6           0        2.965340    1.479990   -0.871530
     23         16           0       -4.444770   -0.503040    0.268660
     24          1           0       -0.323700   -0.829860   -1.375390
     25          1           0       -0.747910   -2.545160   -1.520640
     26          1           0       -0.147640   -1.891140   -0.005210
     27          1           0       -5.970080   -2.880980    0.650160
     28          1           0       -4.934880   -4.033670    0.008750
     29          1           0        1.363510    3.468790    0.168140
     30          1           0       -4.026990    2.218930   -0.092660
     31          1           0       -2.835230    4.383640    0.081060
     32          1           0        1.316850    0.479140    1.865620
     33          1           0        3.006790   -1.237970    1.810910
     34          1           0        5.969390   -3.032150    0.977450
     35          1           0        4.296340   -2.880140    1.431660
     36          1           0        5.474950   -1.722960    2.043980
     37          1           0        6.759560   -2.181230   -0.794870
     38          1           0        6.697560   -0.433580   -0.597900
     39          1           0        5.812970   -1.225390   -1.899520
     40          1           0        4.684260    0.568150   -1.691040
     41          1           0        2.950100    2.242740   -1.630400
     42         -1           0       -5.227560   -3.080250    0.017760
     43         -1           0       -5.030470   -4.048870   -1.488120
     44         -1           0       -3.467630   -8.813330   -0.036420
     45          8           0       -4.330293   -6.003144   -0.009860
     46          1           0       -3.446684   -6.330589   -0.107746
     47          1           0       -4.877491   -6.771570    0.077669
 ---------------------------------------------------------------------

 Alpha  occ. eigenvalues --  -91.96131 -20.58033 -15.56918 -15.56838 -15.56659
 Alpha  occ. eigenvalues --  -15.53887 -15.53721 -15.53469 -11.33800 -11.33484
 Alpha  occ. eigenvalues --  -11.29599 -11.27688 -11.27045 -11.26828 -11.25131
 Alpha  occ. eigenvalues --  -11.25024 -11.25014 -11.24076 -11.22453 -11.22219
 Alpha  occ. eigenvalues --  -11.21507 -11.21481 -11.20995 -11.19869  -8.97282
 Alpha  occ. eigenvalues --   -6.65552  -6.65442  -6.65258  -1.36802  -1.32622
 Alpha  occ. eigenvalues --   -1.29746  -1.25291  -1.22515  -1.19848  -1.18429
 Alpha  occ. eigenvalues --   -1.12599  -1.07177  -1.02979  -1.01590  -1.01179
 Alpha  occ. eigenvalues --   -0.99217  -0.96756  -0.92157  -0.89684  -0.87116
 Alpha  occ. eigenvalues --   -0.85283  -0.82397  -0.79084  -0.77889  -0.75608
 Alpha  occ. eigenvalues --   -0.73512  -0.72353  -0.71665  -0.69198  -0.67814
 Alpha  occ. eigenvalues --   -0.66243  -0.65014  -0.64545  -0.63622  -0.62722
 Alpha  occ. eigenvalues --   -0.61671  -0.59841  -0.59503  -0.58824  -0.58349
 Alpha  occ. eigenvalues --   -0.58096  -0.57071  -0.56837  -0.55697  -0.55295
 Alpha  occ. eigenvalues --   -0.54605  -0.53895  -0.52820  -0.52564  -0.52206
 Alpha  occ. eigenvalues --   -0.52060  -0.50235  -0.48301  -0.47537  -0.46295
 Alpha  occ. eigenvalues --   -0.45861  -0.43822  -0.41161  -0.40937  -0.39866
 Alpha  occ. eigenvalues --   -0.38345  -0.36984  -0.32851  -0.32145  -0.28204
 Alpha  occ. eigenvalues --   -0.26532
 Alpha virt. eigenvalues --    0.10350   0.14964   0.15316   0.16962   0.17618
 Alpha virt. eigenvalues --    0.19500   0.20527   0.23291   0.25452   0.26104
 Alpha virt. eigenvalues --    0.26689   0.27073   0.27712   0.27937   0.28066

 Mulliken atomic charges:
              1
     1  N   -0.593703
     2  N   -0.928199
     3  N   -0.630251
     4  N   -0.914118
     5  N   -0.669259
     6  N   -0.686262
     7  C   -0.492319
     8  C    0.337824
     9  C    0.387583
    10  C   -0.384313
    11  C    0.422465
    12  C   -0.368203
    13  C    0.121749
    14  C    0.860967
    15  C    0.288178
    16  C   -0.163684
    17  C   -0.283476
    18  C    0.387391
    19  C   -0.289031
    20  C   -0.289047
    21  C   -0.280119
    22  C   -0.197815
    23  S    0.253933
    24  H    0.207466
    25  H    0.178769
    26  H    0.188291
    27  H    0.375762
    28  H    0.466132
    29  H    0.398110
    30  H    0.220992
    31  H    0.209295
    32  H    0.218519
    33  H    0.203621
    34  H    0.173556
    35  H    0.176653
    36  H    0.157843
    37  H    0.174149
    38  H    0.156506
    39  H    0.177275
    40  H    0.203273
    41  H    0.205714
    42  O   -0.879045
    43  H    0.453255
    44  H    0.443574
 Sum of Mulliken atomic charges =   0.00000

 Dipole moment (field-independent basis, Debye):
    X=              0.5962    Y=             -4.8214    Z=              1.2585  Tot=              5.0185
 Quadrupole moment (field-independent basis, Debye-Ang):
   XX=           -115.3525   YY=           -110.7361   ZZ=           -149.2415
   XY=             11.2199   XZ=             -9.3706   YZ=             -8.5225

 1\1\GINC-B41\FOpt\RHF\6-31G(d)\C16H20N6O1S1\RUPAKHETIC\28-Mar-2018\1\\
 #HF/6-31G* nosymm SCF=Tight opt=(Z-MATRIX,MaxCycle=200)\\Mol-Water Dim
 er\\0,1\N,0,-3.01331,-2.51155,-0.41219\N,0,-5.22756,-3.08025,0.01776\N
 ,0,-0.97817,3.56035,0.13129\N,0,1.03999,2.52808,0.16831\N,0,4.96579,-1
 .51547,-0.0087\N,0,-0.84043,1.19804,0.0407\C,0,-0.7616,-1.67732,-0.873
 75\C,0,-2.17855,-1.41595,-0.45381\C,0,-4.20008,-2.18855,-0.05691\C,0,-
 2.74326,-0.23257,-0.11111\C,0,-2.16161,1.10984,-0.02969\C,0,-2.95851,2
 .25384,-0.0187\C,0,-2.28736,3.45662,0.06768\C,0,-0.31018,2.40783,0.107

 Normal termination of Gaussian 09 at Wed Mar 28 16:02:01 2018.
