 Gaussian 09, Revision A.02,
 Gaussian 09:  EM64L-G09RevA.02 11-Jun-2009

 -------------------------------------------------------
 #HF/6-31G* nosymm SCF=Tight opt=(Z-MATRIX,MaxCycle=200)
 -------------------------------------------------------

 ---------------
 Mol-Water Dimer
 ---------------
 Symbolic Z-matrix:
 Charge =  0 Multiplicity = 1

 SCF Done:  E(RHF) =  -1416.59411770     A.U. after   16 cycles
 SCF Done:  E(RHF) =  -1416.59400471     A.U. after   12 cycles
 SCF Done:  E(RHF) =  -1416.59413031     A.U. after   12 cycles
 SCF Done:  E(RHF) =  -1416.59412683     A.U. after   10 cycles
 SCF Done:  E(RHF) =  -1416.59414006     A.U. after   10 cycles
 SCF Done:  E(RHF) =  -1416.59414406     A.U. after    9 cycles
 SCF Done:  E(RHF) =  -1416.59414604     A.U. after    7 cycles
 SCF Done:  E(RHF) =  -1416.59414615     A.U. after    6 cycles
 SCF Done:  E(RHF) =  -1416.59414616     A.U. after    5 cycles
 Optimization completed.
    -- Stationary point found.

                         Z-Matrix orientation:
 ---------------------------------------------------------------------
 Center     Atomic      Atomic             Coordinates (Angstroms)
 Number     Number       Type             X           Y           Z
 ---------------------------------------------------------------------
      1          7           0       -3.013310   -2.511550   -0.412190
      2          7           0       -5.227560   -3.080250    0.017760
      3          7           0       -0.978170    3.560350    0.131290
      4          7           0        1.039990    2.528080    0.168310
      5          7           0        4.965790   -1.515470   -0.008700
      6          7           0       -0.840430    1.198040    0.040700
      7          6           0       -0.761600   -1.677320   -0.873750
      8          6           0       -2.178550   -1.415950   -0.453810
      9          6           0       -4.200080   -2.188550   -0.056910
     10          6           0       -2.743260   -0.232570   -0.111110
     11          6           0       -2.161610    1.109840   -0.029690
     12          6           0       -2.958510    2.253840   -0.018700
     13          6           0       -2.287360    3.456620    0.067680
     14          6           0       -0.310180    2.407830    0.107020
     15          6           0        2.000320    1.487940    0.118570
     16          6           0        2.049180    0.490890    1.080540
     17          6           0        3.019090   -0.490530    1.043400
     18          6           0        4.001460   -0.509640    0.043610
     19          6           0        5.184710   -2.316130    1.176500
     20          6           0        6.115110   -1.316330   -0.863710
     21          6           0        3.957010    0.514580   -0.906280
     22          6           0        2.965340    1.479990   -0.871530
     23         16           0       -4.444770   -0.503040    0.268660
     24          1           0       -0.323700   -0.829860   -1.375390
     25          1           0       -0.747910   -2.545160   -1.520640
     26          1           0       -0.147640   -1.891140   -0.005210
     27          1           0       -5.970080   -2.880980    0.650160
     28          1           0       -4.934880   -4.033670    0.008750
     29          1           0        1.363510    3.468790    0.168140
     30          1           0       -4.026990    2.218930   -0.092660
     31          1           0       -2.835230    4.383640    0.081060
     32          1           0        1.316850    0.479140    1.865620
     33          1           0        3.006790   -1.237970    1.810910
     34          1           0        5.969390   -3.032150    0.977450
     35          1           0        4.296340   -2.880140    1.431660
     36          1           0        5.474950   -1.722960    2.043980
     37          1           0        6.759560   -2.181230   -0.794870
     38          1           0        6.697560   -0.433580   -0.597900
     39          1           0        5.812970   -1.225390   -1.899520
     40          1           0        4.684260    0.568150   -1.691040
     41          1           0        2.950100    2.242740   -1.630400
     42         -1           0        1.039990    2.528080    0.168310
     43         -1           0        1.433690    3.444380   -1.330020
     44         -1           0        2.989590    8.196990    0.167290
     45          8           0        2.038899    5.432640    0.167780
     46          1           0        2.935342    5.730502    0.240135
     47          1           0        1.515281    6.218851    0.095233
 ---------------------------------------------------------------------

 Alpha  occ. eigenvalues --  -91.96755 -20.57062 -15.58914 -15.56230 -15.55180
 Alpha  occ. eigenvalues --  -15.54259 -15.53407 -15.53310 -11.34572 -11.32805
 Alpha  occ. eigenvalues --  -11.29414 -11.27412 -11.27275 -11.26266 -11.24705
 Alpha  occ. eigenvalues --  -11.24674 -11.24492 -11.24397 -11.21755 -11.21572
 Alpha  occ. eigenvalues --  -11.20982 -11.20956 -11.20772 -11.19834  -8.97893
 Alpha  occ. eigenvalues --   -6.66164  -6.66049  -6.65868  -1.35828  -1.31984
 Alpha  occ. eigenvalues --   -1.30668  -1.24862  -1.21668  -1.20887  -1.18198
 Alpha  occ. eigenvalues --   -1.11988  -1.07275  -1.02898  -1.01951  -1.00624
 Alpha  occ. eigenvalues --   -0.98658  -0.96377  -0.92263  -0.89184  -0.87184
 Alpha  occ. eigenvalues --   -0.84841  -0.81844  -0.79271  -0.77470  -0.76208
 Alpha  occ. eigenvalues --   -0.72541  -0.72008  -0.71774  -0.69076  -0.68521
 Alpha  occ. eigenvalues --   -0.65897  -0.64552  -0.64087  -0.63265  -0.62644
 Alpha  occ. eigenvalues --   -0.61138  -0.59834  -0.58803  -0.58395  -0.58313
 Alpha  occ. eigenvalues --   -0.57586  -0.57169  -0.56492  -0.55391  -0.55287
 Alpha  occ. eigenvalues --   -0.54473  -0.54263  -0.52542  -0.52408  -0.51704
 Alpha  occ. eigenvalues --   -0.51083  -0.49614  -0.48017  -0.47580  -0.46567
 Alpha  occ. eigenvalues --   -0.45442  -0.43469  -0.41789  -0.41113  -0.39405
 Alpha  occ. eigenvalues --   -0.37984  -0.37402  -0.32317  -0.31690  -0.28535
 Alpha  occ. eigenvalues --   -0.25889
 Alpha virt. eigenvalues --    0.10297   0.15348   0.15820   0.16401   0.17926
 Alpha virt. eigenvalues --    0.20339   0.20555   0.23021   0.23641   0.25577
 Alpha virt. eigenvalues --    0.26876   0.27134   0.27977   0.28114   0.28324

 Mulliken atomic charges:
              1
     1  N   -0.589158
     2  N   -0.886941
     3  N   -0.628193
     4  N   -0.951649
     5  N   -0.669065
     6  N   -0.686318
     7  C   -0.491868
     8  C    0.334333
     9  C    0.384630
    10  C   -0.379757
    11  C    0.421979
    12  C   -0.372160
    13  C    0.121866
    14  C    0.857494
    15  C    0.284054
    16  C   -0.166699
    17  C   -0.283927
    18  C    0.385262
    19  C   -0.288110
    20  C   -0.287566
    21  C   -0.280896
    22  C   -0.199217
    23  S    0.262169
    24  H    0.210054
    25  H    0.180240
    26  H    0.191231
    27  H    0.385791
    28  H    0.395933
    29  H    0.478267
    30  H    0.216720
    31  H    0.203981
    32  H    0.215634
    33  H    0.201317
    34  H    0.172375
    35  H    0.176896
    36  H    0.156170
    37  H    0.173054
    38  H    0.154133
    39  H    0.176667
    40  H    0.199822
    41  H    0.206470
    42  O   -0.875943
    43  H    0.441282
    44  H    0.449641
 Sum of Mulliken atomic charges =   0.00000

 Dipole moment (field-independent basis, Debye):
    X=              1.2287    Y=              1.0905    Z=              1.3198  Tot=              2.1074
 Quadrupole moment (field-independent basis, Debye-Ang):
   XX=           -109.9175   YY=           -114.3886   ZZ=           -149.3538
   XY=             11.8597   XZ=             -8.8179   YZ=             -8.2158

 1\1\GINC-B41\FOpt\RHF\6-31G(d)\C16H20N6O1S1\RUPAKHETIC\28-Mar-2018\1\\
 #HF/6-31G* nosymm SCF=Tight opt=(Z-MATRIX,MaxCycle=200)\\Mol-Water Dim
 er\\0,1\N,0,-3.01331,-2.51155,-0.41219\N,0,-5.22756,-3.08025,0.01776\N
 ,0,-0.97817,3.56035,0.13129\N,0,1.03999,2.52808,0.16831\N,0,4.96579,-1
 .51547,-0.0087\N,0,-0.84043,1.19804,0.0407\C,0,-0.7616,-1.67732,-0.873
 75\C,0,-2.17855,-1.41595,-0.45381\C,0,-4.20008,-2.18855,-0.05691\C,0,-
 2.74326,-0.23257,-0.11111\C,0,-2.16161,1.10984,-0.02969\C,0,-2.95851,2
 .25384,-0.0187\C,0,-2.28736,3.45662,0.06768\C,0,-0.31018,2.40783,0.107

 Normal termination of Gaussian 09 at Wed Mar 28 16:03:02 2018.
