 Gaussian 09, Revision A.02,
 Gaussian 09:  EM64L-G09RevA.02 11-Jun-2009

 -------------------------------------------------------
 #HF/6-31G* nosymm SCF=Tight opt=(Z-MATRIX,MaxCycle=200)
 -------------------------------------------------------

 ---------------
 Mol-Water Dimer
 ---------------
 Symbolic Z-matrix:
 Charge =  0 Multiplicity = 1

 SCF Done:  E(RHF) =  -1416.59752051     A.U. after   16 cycles
 SCF Done:  E(RHF) =  -1416.59764693     A.U. after   12 cycles
 SCF Done:  E(RHF) =  -1416.59768761     A.U. after   10 cycles
 SCF Done:  E(RHF) =  -1416.59770268     A.U. after    9 cycles
 SCF Done:  E(RHF) =  -1416.59770893     A.U. after    8 cycles
 SCF Done:  E(RHF) =  -1416.59771087     A.U. after    7 cycles
 SCF Done:  E(RHF) =  -1416.59771156     A.U. after    6 cycles
 SCF Done:  E(RHF) =  -1416.59771227     A.U. after    7 cycles
 SCF Done:  E(RHF) =  -1416.59771268     A.U. after    8 cycles
 SCF Done:  E(RHF) =  -1416.59771269     A.U. after    6 cycles
 Optimization completed.
    -- Stationary point found.

                         Z-Matrix orientation:
 ---------------------------------------------------------------------
 Center     Atomic      Atomic             Coordinates (Angstroms)
 Number     Number       Type             X           Y           Z
 ---------------------------------------------------------------------
      1          7           0       -3.013310   -2.511550   -0.412190
      2          7           0       -5.227560   -3.080250    0.017760
      3          7           0       -0.978170    3.560350    0.131290
      4          7           0        1.039990    2.528080    0.168310
      5          7           0        4.965790   -1.515470   -0.008700
      6          7           0       -0.840430    1.198040    0.040700
      7          6           0       -0.761600   -1.677320   -0.873750
      8          6           0       -2.178550   -1.415950   -0.453810
      9          6           0       -4.200080   -2.188550   -0.056910
     10          6           0       -2.743260   -0.232570   -0.111110
     11          6           0       -2.161610    1.109840   -0.029690
     12          6           0       -2.958510    2.253840   -0.018700
     13          6           0       -2.287360    3.456620    0.067680
     14          6           0       -0.310180    2.407830    0.107020
     15          6           0        2.000320    1.487940    0.118570
     16          6           0        2.049180    0.490890    1.080540
     17          6           0        3.019090   -0.490530    1.043400
     18          6           0        4.001460   -0.509640    0.043610
     19          6           0        5.184710   -2.316130    1.176500
     20          6           0        6.115110   -1.316330   -0.863710
     21          6           0        3.957010    0.514580   -0.906280
     22          6           0        2.965340    1.479990   -0.871530
     23         16           0       -4.444770   -0.503040    0.268660
     24          1           0       -0.323700   -0.829860   -1.375390
     25          1           0       -0.747910   -2.545160   -1.520640
     26          1           0       -0.147640   -1.891140   -0.005210
     27          1           0       -5.970080   -2.880980    0.650160
     28          1           0       -4.934880   -4.033670    0.008750
     29          1           0        1.363510    3.468790    0.168140
     30          1           0       -4.026990    2.218930   -0.092660
     31          1           0       -2.835230    4.383640    0.081060
     32          1           0        1.316850    0.479140    1.865620
     33          1           0        3.006790   -1.237970    1.810910
     34          1           0        5.969390   -3.032150    0.977450
     35          1           0        4.296340   -2.880140    1.431660
     36          1           0        5.474950   -1.722960    2.043980
     37          1           0        6.759560   -2.181230   -0.794870
     38          1           0        6.697560   -0.433580   -0.597900
     39          1           0        5.812970   -1.225390   -1.899520
     40          1           0        4.684260    0.568150   -1.691040
     41          1           0        2.950100    2.242740   -1.630400
     42         -1           0       -5.227560   -3.080250    0.017760
     43         -1           0       -5.246510   -3.623990    1.733850
     44         -1           0       -9.699550   -1.880100    3.826530
     45          8           0       -7.509443   -2.467861    1.961225
     46          1           0       -7.439508   -2.286488    2.888468
     47          1           0       -8.434463   -2.419754    1.762254
 ---------------------------------------------------------------------

 Alpha  occ. eigenvalues --  -91.96029 -20.59241 -15.56866 -15.56769 -15.56538
 Alpha  occ. eigenvalues --  -15.53852 -15.53665 -15.53393 -11.33705 -11.33441
 Alpha  occ. eigenvalues --  -11.29549 -11.27669 -11.26930 -11.26727 -11.25045
 Alpha  occ. eigenvalues --  -11.24895 -11.24884 -11.23931 -11.22366 -11.22132
 Alpha  occ. eigenvalues --  -11.21410 -11.21380 -11.20964 -11.19680  -8.97164
 Alpha  occ. eigenvalues --   -6.65432  -6.65322  -6.65139  -1.37986  -1.32578
 Alpha  occ. eigenvalues --   -1.29686  -1.25173  -1.22459  -1.19771  -1.18378
 Alpha  occ. eigenvalues --   -1.12510  -1.07095  -1.02904  -1.01453  -1.01082
 Alpha  occ. eigenvalues --   -0.99130  -0.96632  -0.92041  -0.89591  -0.87029
 Alpha  occ. eigenvalues --   -0.85218  -0.82305  -0.78998  -0.77801  -0.75515
 Alpha  occ. eigenvalues --   -0.74710  -0.72284  -0.71558  -0.69123  -0.68017
 Alpha  occ. eigenvalues --   -0.66144  -0.64952  -0.64441  -0.63496  -0.62566
 Alpha  occ. eigenvalues --   -0.61577  -0.60500  -0.59734  -0.58688  -0.58276
 Alpha  occ. eigenvalues --   -0.58009  -0.56993  -0.56725  -0.55576  -0.55231
 Alpha  occ. eigenvalues --   -0.54662  -0.53749  -0.53255  -0.52698  -0.52417
 Alpha  occ. eigenvalues --   -0.52066  -0.50141  -0.48206  -0.47376  -0.46221
 Alpha  occ. eigenvalues --   -0.45790  -0.43766  -0.41118  -0.40919  -0.39772
 Alpha  occ. eigenvalues --   -0.38293  -0.36874  -0.32759  -0.32081  -0.28113
 Alpha  occ. eigenvalues --   -0.26443
 Alpha virt. eigenvalues --    0.10430   0.15030   0.15406   0.16966   0.17668
 Alpha virt. eigenvalues --    0.19653   0.20557   0.23415   0.25102   0.25879
 Alpha virt. eigenvalues --    0.26608   0.27053   0.27866   0.27972   0.28367

 Mulliken atomic charges:
              1
     1  N   -0.594131
     2  N   -0.927615
     3  N   -0.630624
     4  N   -0.914141
     5  N   -0.668931
     6  N   -0.685535
     7  C   -0.492309
     8  C    0.337027
     9  C    0.382761
    10  C   -0.386442
    11  C    0.422068
    12  C   -0.368476
    13  C    0.121589
    14  C    0.860797
    15  C    0.288139
    16  C   -0.163635
    17  C   -0.283067
    18  C    0.387573
    19  C   -0.289330
    20  C   -0.289047
    21  C   -0.279988
    22  C   -0.197818
    23  S    0.259599
    24  H    0.206527
    25  H    0.181114
    26  H    0.188703
    27  H    0.455928
    28  H    0.385955
    29  H    0.397861
    30  H    0.220196
    31  H    0.208335
    32  H    0.217870
    33  H    0.203965
    34  H    0.173804
    35  H    0.177658
    36  H    0.157259
    37  H    0.174385
    38  H    0.156043
    39  H    0.177414
    40  H    0.203244
    41  H    0.205403
    42  O   -0.883038
    43  H    0.451496
    44  H    0.451414
 Sum of Mulliken atomic charges =   0.00000

 Dipole moment (field-independent basis, Debye):
    X=             -2.3313    Y=             -1.7574    Z=              3.0531  Tot=              4.2244
 Quadrupole moment (field-independent basis, Debye-Ang):
   XX=            -78.1598   YY=           -144.8454   ZZ=           -140.6631
   XY=              5.3736   XZ=            -24.8636   YZ=            -11.7376

 1\1\GINC-B41\FOpt\RHF\6-31G(d)\C16H20N6O1S1\RUPAKHETIC\28-Mar-2018\1\\
 #HF/6-31G* nosymm SCF=Tight opt=(Z-MATRIX,MaxCycle=200)\\Mol-Water Dim
 er\\0,1\N,0,-3.01331,-2.51155,-0.41219\N,0,-5.22756,-3.08025,0.01776\N
 ,0,-0.97817,3.56035,0.13129\N,0,1.03999,2.52808,0.16831\N,0,4.96579,-1
 .51547,-0.0087\N,0,-0.84043,1.19804,0.0407\C,0,-0.7616,-1.67732,-0.873
 75\C,0,-2.17855,-1.41595,-0.45381\C,0,-4.20008,-2.18855,-0.05691\C,0,-
 2.74326,-0.23257,-0.11111\C,0,-2.16161,1.10984,-0.02969\C,0,-2.95851,2
 .25384,-0.0187\C,0,-2.28736,3.45662,0.06768\C,0,-0.31018,2.40783,0.107

 Normal termination of Gaussian 09 at Wed Mar 28 16:03:23 2018.
