 Gaussian 09, Revision A.02,
 Gaussian 09:  EM64L-G09RevA.02 11-Jun-2009

 -------------------------------------------------------
 #HF/6-31G* nosymm SCF=Tight opt=(Z-MATRIX,MaxCycle=200)
 -------------------------------------------------------

 ---------------
 Mol-Water Dimer
 ---------------
 Symbolic Z-matrix:
 Charge =  0 Multiplicity = 1

 SCF Done:  E(RHF) =  -1416.59247941     A.U. after   16 cycles
 SCF Done:  E(RHF) =  -1416.59303968     A.U. after   11 cycles
 SCF Done:  E(RHF) =  -1416.59346418     A.U. after   14 cycles
 SCF Done:  E(RHF) =  -1416.59360623     A.U. after   13 cycles
 SCF Done:  E(RHF) =  -1416.59362936     A.U. after   11 cycles
 SCF Done:  E(RHF) =  -1416.59363202     A.U. after    8 cycles
 SCF Done:  E(RHF) =  -1416.59363229     A.U. after    7 cycles
 Optimization completed.
    -- Stationary point found.

                         Z-Matrix orientation:
 ---------------------------------------------------------------------
 Center     Atomic      Atomic             Coordinates (Angstroms)
 Number     Number       Type             X           Y           Z
 ---------------------------------------------------------------------
      1          7           0       -3.013310   -2.511550   -0.412190
      2          7           0       -5.227560   -3.080250    0.017760
      3          7           0       -0.978170    3.560350    0.131290
      4          7           0        1.039990    2.528080    0.168310
      5          7           0        4.965790   -1.515470   -0.008700
      6          7           0       -0.840430    1.198040    0.040700
      7          6           0       -0.761600   -1.677320   -0.873750
      8          6           0       -2.178550   -1.415950   -0.453810
      9          6           0       -4.200080   -2.188550   -0.056910
     10          6           0       -2.743260   -0.232570   -0.111110
     11          6           0       -2.161610    1.109840   -0.029690
     12          6           0       -2.958510    2.253840   -0.018700
     13          6           0       -2.287360    3.456620    0.067680
     14          6           0       -0.310180    2.407830    0.107020
     15          6           0        2.000320    1.487940    0.118570
     16          6           0        2.049180    0.490890    1.080540
     17          6           0        3.019090   -0.490530    1.043400
     18          6           0        4.001460   -0.509640    0.043610
     19          6           0        5.184710   -2.316130    1.176500
     20          6           0        6.115110   -1.316330   -0.863710
     21          6           0        3.957010    0.514580   -0.906280
     22          6           0        2.965340    1.479990   -0.871530
     23         16           0       -4.444770   -0.503040    0.268660
     24          1           0       -0.323700   -0.829860   -1.375390
     25          1           0       -0.747910   -2.545160   -1.520640
     26          1           0       -0.147640   -1.891140   -0.005210
     27          1           0       -5.970080   -2.880980    0.650160
     28          1           0       -4.934880   -4.033670    0.008750
     29          1           0        1.363510    3.468790    0.168140
     30          1           0       -4.026990    2.218930   -0.092660
     31          1           0       -2.835230    4.383640    0.081060
     32          1           0        1.316850    0.479140    1.865620
     33          1           0        3.006790   -1.237970    1.810910
     34          1           0        5.969390   -3.032150    0.977450
     35          1           0        4.296340   -2.880140    1.431660
     36          1           0        5.474950   -1.722960    2.043980
     37          1           0        6.759560   -2.181230   -0.794870
     38          1           0        6.697560   -0.433580   -0.597900
     39          1           0        5.812970   -1.225390   -1.899520
     40          1           0        4.684260    0.568150   -1.691040
     41          1           0        2.950100    2.242740   -1.630400
     42         -1           0       -4.535730   -3.312560    1.328260
     43         -1           0       -4.365460   -4.127280   -0.622960
     44          1           0       -6.288437   -2.724017   -1.991806
     45         -1           0       -5.426339   -3.771044   -2.632524
     46          8           0       -6.725397   -2.577290   -2.819516
     47          1           0       -6.052443   -2.268438   -3.410541
 ---------------------------------------------------------------------

 Alpha  occ. eigenvalues --  -91.98193 -20.53571 -15.60905 -15.57665 -15.57033
 Alpha  occ. eigenvalues --  -15.55893 -15.54879 -15.54800 -11.36076 -11.34413
 Alpha  occ. eigenvalues --  -11.30783 -11.28654 -11.28605 -11.27301 -11.25950
 Alpha  occ. eigenvalues --  -11.25673 -11.25324 -11.25320 -11.22974 -11.22764
 Alpha  occ. eigenvalues --  -11.22092 -11.21975 -11.21963 -11.21004  -8.99319
 Alpha  occ. eigenvalues --   -6.67588  -6.67472  -6.67292  -1.33584  -1.32658
 Alpha  occ. eigenvalues --   -1.32286  -1.25675  -1.23479  -1.22680  -1.19633
 Alpha  occ. eigenvalues --   -1.13160  -1.08718  -1.04265  -1.03327  -1.01666
 Alpha  occ. eigenvalues --   -0.99847  -0.97094  -0.93611  -0.90269  -0.88600
 Alpha  occ. eigenvalues --   -0.86142  -0.83002  -0.80785  -0.78701  -0.77782
 Alpha  occ. eigenvalues --   -0.73678  -0.73093  -0.70583  -0.69656  -0.69641
 Alpha  occ. eigenvalues --   -0.67255  -0.65811  -0.65174  -0.64005  -0.63961
 Alpha  occ. eigenvalues --   -0.62174  -0.61360  -0.60171  -0.59548  -0.58652
 Alpha  occ. eigenvalues --   -0.58584  -0.57618  -0.56698  -0.56143  -0.55984
 Alpha  occ. eigenvalues --   -0.55633  -0.54772  -0.53781  -0.53168  -0.52788
 Alpha  occ. eigenvalues --   -0.50831  -0.49330  -0.48806  -0.47996  -0.47839
 Alpha  occ. eigenvalues --   -0.46919  -0.45055  -0.43283  -0.42577  -0.40475
 Alpha  occ. eigenvalues --   -0.39348  -0.38788  -0.33490  -0.33120  -0.30006
 Alpha  occ. eigenvalues --   -0.27104
 Alpha virt. eigenvalues --    0.08833   0.14017   0.14745   0.15052   0.16584
 Alpha virt. eigenvalues --    0.18875   0.21115   0.22924   0.23619   0.24518
 Alpha virt. eigenvalues --    0.25932   0.26347   0.26623   0.27135   0.27502

 Mulliken atomic charges:
              1
     1  N   -0.580806
     2  N   -0.913879
     3  N   -0.625312
     4  N   -0.913024
     5  N   -0.669152
     6  N   -0.684396
     7  C   -0.492207
     8  C    0.331088
     9  C    0.371227
    10  C   -0.377531
    11  C    0.421811
    12  C   -0.368756
    13  C    0.122795
    14  C    0.862384
    15  C    0.286118
    16  C   -0.164697
    17  C   -0.283594
    18  C    0.388174
    19  C   -0.289874
    20  C   -0.289821
    21  C   -0.279992
    22  C   -0.197696
    23  S    0.276119
    24  H    0.210524
    25  H    0.182492
    26  H    0.193846
    27  H    0.397832
    28  H    0.405703
    29  H    0.399773
    30  H    0.222949
    31  H    0.213691
    32  H    0.217491
    33  H    0.204999
    34  H    0.175082
    35  H    0.177067
    36  H    0.158392
    37  H    0.175569
    38  H    0.157145
    39  H    0.177466
    40  H    0.204907
    41  H    0.206516
    42  H    0.468818
    43  O   -0.908871
    44  H    0.429632
 Sum of Mulliken atomic charges =   0.00000

 Dipole moment (field-independent basis, Debye):
    X=              2.8592    Y=             -1.2198    Z=              2.1290  Tot=              3.7677
 Quadrupole moment (field-independent basis, Debye-Ang):
   XX=           -142.6210   YY=           -143.3079   ZZ=           -149.6525
   XY=             -6.8618   XZ=            -20.8560   YZ=            -12.3938

 1\1\GINC-B41\FOpt\RHF\6-31G(d)\C16H20N6O1S1\RUPAKHETIC\28-Mar-2018\1\\
 #HF/6-31G* nosymm SCF=Tight opt=(Z-MATRIX,MaxCycle=200)\\Mol-Water Dim
 er\\0,1\N,0,-3.01331,-2.51155,-0.41219\N,0,-5.22756,-3.08025,0.01776\N
 ,0,-0.97817,3.56035,0.13129\N,0,1.03999,2.52808,0.16831\N,0,4.96579,-1
 .51547,-0.0087\N,0,-0.84043,1.19804,0.0407\C,0,-0.7616,-1.67732,-0.873
 75\C,0,-2.17855,-1.41595,-0.45381\C,0,-4.20008,-2.18855,-0.05691\C,0,-
 2.74326,-0.23257,-0.11111\C,0,-2.16161,1.10984,-0.02969\C,0,-2.95851,2
 .25384,-0.0187\C,0,-2.28736,3.45662,0.06768\C,0,-0.31018,2.40783,0.107

 Normal termination of Gaussian 09 at Wed Mar 28 15:51:37 2018.
